<?xml version="1.0"?>
<VTKFile type="PolyData" version="0.1">
  <PolyData>
    <Piece NumberOfPoints="4" NumberOfPolys="1">
      <Points>
        <DataArray type="Float32" Name="Fault Patch" NumberOfComponents="3" format="ascii">
105885.200000 -200072.600000 11973.900000
96682.086183 -176828.187853 11973.900000
73610.934359 -185962.703055 8927.166415
82814.048176 -209207.115202 8927.166415
        </DataArray>
      </Points>
      <Polys>
        <DataArray type="Int32" Name="connectivity" format="ascii" RangeMin="0" RangeMax="-1">
0 1 2 3
        </DataArray>
        <DataArray type="Int32" Name="offsets" format="ascii" RangeMin="4" RangeMax="4">
          4
        </DataArray>
      </Polys>
      <CellData Scalar="geometry">
        <DataArray type="Float32" Name="strike" NumberOfComponents="1" format="ascii">
111.600000
        </DataArray>
        <DataArray type="Float32" Name="dip" NumberOfComponents="1" format="ascii">
-7.000000
        </DataArray>
        <DataArray type="Float32" Name="strike slip" NumberOfComponents="1" format="ascii">
-0.000135
        </DataArray>
        <DataArray type="Float32" Name="dip slip" NumberOfComponents="1" format="ascii">
-0.000636
        </DataArray>
        <DataArray type="Float32" Name="slip" NumberOfComponents="3" format="ascii">
-0.000537 -0.000358 -0.000077
        </DataArray>
      </CellData>
    </Piece>
    <Piece NumberOfPoints="4" NumberOfPolys="1">
      <Points>
        <DataArray type="Float32" Name="Fault Patch" NumberOfComponents="3" format="ascii">
96683.720000 -176827.500000 11973.900000
87480.606183 -153583.087853 11973.900000
64409.454359 -162717.603055 8927.166415
73612.568176 -185962.015202 8927.166415
        </DataArray>
      </Points>
      <Polys>
        <DataArray type="Int32" Name="connectivity" format="ascii" RangeMin="0" RangeMax="-1">
0 1 2 3
        </DataArray>
        <DataArray type="Int32" Name="offsets" format="ascii" RangeMin="4" RangeMax="4">
          4
        </DataArray>
      </Polys>
      <CellData Scalar="geometry">
        <DataArray type="Float32" Name="strike" NumberOfComponents="1" format="ascii">
111.600000
        </DataArray>
        <DataArray type="Float32" Name="dip" NumberOfComponents="1" format="ascii">
-7.000000
        </DataArray>
        <DataArray type="Float32" Name="strike slip" NumberOfComponents="1" format="ascii">
0.000086
        </DataArray>
        <DataArray type="Float32" Name="dip slip" NumberOfComponents="1" format="ascii">
-0.003659
        </DataArray>
        <DataArray type="Float32" Name="slip" NumberOfComponents="3" format="ascii">
-0.003408 -0.001257 -0.000446
        </DataArray>
      </CellData>
    </Piece>
    <Piece NumberOfPoints="4" NumberOfPolys="1">
      <Points>
        <DataArray type="Float32" Name="Fault Patch" NumberOfComponents="3" format="ascii">
87482.230000 -153582.500000 11973.900000
78279.116183 -130338.087853 11973.900000
55207.964359 -139472.603055 8927.166415
64411.078176 -162717.015202 8927.166415
        </DataArray>
      </Points>
      <Polys>
        <DataArray type="Int32" Name="connectivity" format="ascii" RangeMin="0" RangeMax="-1">
0 1 2 3
        </DataArray>
        <DataArray type="Int32" Name="offsets" format="ascii" RangeMin="4" RangeMax="4">
          4
        </DataArray>
      </Polys>
      <CellData Scalar="geometry">
        <DataArray type="Float32" Name="strike" NumberOfComponents="1" format="ascii">
111.600000
        </DataArray>
        <DataArray type="Float32" Name="dip" NumberOfComponents="1" format="ascii">
-7.000000
        </DataArray>
        <DataArray type="Float32" Name="strike slip" NumberOfComponents="1" format="ascii">
-0.000149
        </DataArray>
        <DataArray type="Float32" Name="dip slip" NumberOfComponents="1" format="ascii">
-0.005318
        </DataArray>
        <DataArray type="Float32" Name="slip" NumberOfComponents="3" format="ascii">
-0.004853 -0.002082 -0.000648
        </DataArray>
      </CellData>
    </Piece>
    <Piece NumberOfPoints="4" NumberOfPolys="1">
      <Points>
        <DataArray type="Float32" Name="Fault Patch" NumberOfComponents="3" format="ascii">
78280.740000 -130337.400000 11973.900000
69077.626183 -107092.987853 11973.900000
46006.474359 -116227.503055 8927.166415
55209.588176 -139471.915202 8927.166415
        </DataArray>
      </Points>
      <Polys>
        <DataArray type="Int32" Name="connectivity" format="ascii" RangeMin="0" RangeMax="-1">
0 1 2 3
        </DataArray>
        <DataArray type="Int32" Name="offsets" format="ascii" RangeMin="4" RangeMax="4">
          4
        </DataArray>
      </Polys>
      <CellData Scalar="geometry">
        <DataArray type="Float32" Name="strike" NumberOfComponents="1" format="ascii">
111.600000
        </DataArray>
        <DataArray type="Float32" Name="dip" NumberOfComponents="1" format="ascii">
-7.000000
        </DataArray>
        <DataArray type="Float32" Name="strike slip" NumberOfComponents="1" format="ascii">
-0.000721
        </DataArray>
        <DataArray type="Float32" Name="dip slip" NumberOfComponents="1" format="ascii">
-0.003056
        </DataArray>
        <DataArray type="Float32" Name="slip" NumberOfComponents="3" format="ascii">
-0.002555 -0.001787 -0.000372
        </DataArray>
      </CellData>
    </Piece>
    <Piece NumberOfPoints="4" NumberOfPolys="1">
      <Points>
        <DataArray type="Float32" Name="Fault Patch" NumberOfComponents="3" format="ascii">
69079.240000 -107092.400000 11973.900000
59876.126183 -83847.987853 11973.900000
36804.974359 -92982.503055 8927.166415
46008.088176 -116226.915202 8927.166415
        </DataArray>
      </Points>
      <Polys>
        <DataArray type="Int32" Name="connectivity" format="ascii" RangeMin="0" RangeMax="-1">
0 1 2 3
        </DataArray>
        <DataArray type="Int32" Name="offsets" format="ascii" RangeMin="4" RangeMax="4">
          4
        </DataArray>
      </Polys>
      <CellData Scalar="geometry">
        <DataArray type="Float32" Name="strike" NumberOfComponents="1" format="ascii">
111.600000
        </DataArray>
        <DataArray type="Float32" Name="dip" NumberOfComponents="1" format="ascii">
-7.000000
        </DataArray>
        <DataArray type="Float32" Name="strike slip" NumberOfComponents="1" format="ascii">
-0.001281
        </DataArray>
        <DataArray type="Float32" Name="dip slip" NumberOfComponents="1" format="ascii">
-0.004553
        </DataArray>
        <DataArray type="Float32" Name="slip" NumberOfComponents="3" format="ascii">
-0.003731 -0.002854 -0.000555
        </DataArray>
      </CellData>
    </Piece>
    <Piece NumberOfPoints="4" NumberOfPolys="1">
      <Points>
        <DataArray type="Float32" Name="Fault Patch" NumberOfComponents="3" format="ascii">
59877.750000 -83847.310000 11973.900000
50674.636183 -60602.897853 11973.900000
27603.484359 -69737.413055 8927.166415
36806.598176 -92981.825202 8927.166415
        </DataArray>
      </Points>
      <Polys>
        <DataArray type="Int32" Name="connectivity" format="ascii" RangeMin="0" RangeMax="-1">
0 1 2 3
        </DataArray>
        <DataArray type="Int32" Name="offsets" format="ascii" RangeMin="4" RangeMax="4">
          4
        </DataArray>
      </Polys>
      <CellData Scalar="geometry">
        <DataArray type="Float32" Name="strike" NumberOfComponents="1" format="ascii">
111.600000
        </DataArray>
        <DataArray type="Float32" Name="dip" NumberOfComponents="1" format="ascii">
-7.000000
        </DataArray>
        <DataArray type="Float32" Name="strike slip" NumberOfComponents="1" format="ascii">
-0.002051
        </DataArray>
        <DataArray type="Float32" Name="dip slip" NumberOfComponents="1" format="ascii">
-0.017943
        </DataArray>
        <DataArray type="Float32" Name="slip" NumberOfComponents="3" format="ascii">
-0.015804 -0.008463 -0.002187
        </DataArray>
      </CellData>
    </Piece>
    <Piece NumberOfPoints="4" NumberOfPolys="1">
      <Points>
        <DataArray type="Float32" Name="Fault Patch" NumberOfComponents="3" format="ascii">
50676.260000 -60602.260000 11973.900000
41473.146183 -37357.847853 11973.900000
18401.994359 -46492.363055 8927.166415
27605.108176 -69736.775202 8927.166415
        </DataArray>
      </Points>
      <Polys>
        <DataArray type="Int32" Name="connectivity" format="ascii" RangeMin="0" RangeMax="-1">
0 1 2 3
        </DataArray>
        <DataArray type="Int32" Name="offsets" format="ascii" RangeMin="4" RangeMax="4">
          4
        </DataArray>
      </Polys>
      <CellData Scalar="geometry">
        <DataArray type="Float32" Name="strike" NumberOfComponents="1" format="ascii">
111.600000
        </DataArray>
        <DataArray type="Float32" Name="dip" NumberOfComponents="1" format="ascii">
-7.000000
        </DataArray>
        <DataArray type="Float32" Name="strike slip" NumberOfComponents="1" format="ascii">
-0.003115
        </DataArray>
        <DataArray type="Float32" Name="dip slip" NumberOfComponents="1" format="ascii">
-0.021172
        </DataArray>
        <DataArray type="Float32" Name="slip" NumberOfComponents="3" format="ascii">
-0.018392 -0.010632 -0.002580
        </DataArray>
      </CellData>
    </Piece>
    <Piece NumberOfPoints="4" NumberOfPolys="1">
      <Points>
        <DataArray type="Float32" Name="Fault Patch" NumberOfComponents="3" format="ascii">
41474.770000 -37357.200000 11973.900000
32271.656183 -14112.787853 11973.900000
9200.504359 -23247.303055 8927.166415
18403.618176 -46491.715202 8927.166415
        </DataArray>
      </Points>
      <Polys>
        <DataArray type="Int32" Name="connectivity" format="ascii" RangeMin="0" RangeMax="-1">
0 1 2 3
        </DataArray>
        <DataArray type="Int32" Name="offsets" format="ascii" RangeMin="4" RangeMax="4">
          4
        </DataArray>
      </Polys>
      <CellData Scalar="geometry">
        <DataArray type="Float32" Name="strike" NumberOfComponents="1" format="ascii">
111.600000
        </DataArray>
        <DataArray type="Float32" Name="dip" NumberOfComponents="1" format="ascii">
-7.000000
        </DataArray>
        <DataArray type="Float32" Name="strike slip" NumberOfComponents="1" format="ascii">
0.003015
        </DataArray>
        <DataArray type="Float32" Name="dip slip" NumberOfComponents="1" format="ascii">
-0.006571
        </DataArray>
        <DataArray type="Float32" Name="slip" NumberOfComponents="3" format="ascii">
-0.007174 0.000403 -0.000801
        </DataArray>
      </CellData>
    </Piece>
    <Piece NumberOfPoints="4" NumberOfPolys="1">
      <Points>
        <DataArray type="Float32" Name="Fault Patch" NumberOfComponents="3" format="ascii">
32273.280000 -14112.150000 11973.900000
23070.166183 9132.262147 11973.900000
-0.985641 -2.253055 8927.166415
9202.128176 -23246.665202 8927.166415
        </DataArray>
      </Points>
      <Polys>
        <DataArray type="Int32" Name="connectivity" format="ascii" RangeMin="0" RangeMax="-1">
0 1 2 3
        </DataArray>
        <DataArray type="Int32" Name="offsets" format="ascii" RangeMin="4" RangeMax="4">
          4
        </DataArray>
      </Polys>
      <CellData Scalar="geometry">
        <DataArray type="Float32" Name="strike" NumberOfComponents="1" format="ascii">
111.600000
        </DataArray>
        <DataArray type="Float32" Name="dip" NumberOfComponents="1" format="ascii">
-7.000000
        </DataArray>
        <DataArray type="Float32" Name="strike slip" NumberOfComponents="1" format="ascii">
-0.000766
        </DataArray>
        <DataArray type="Float32" Name="dip slip" NumberOfComponents="1" format="ascii">
-0.001912
        </DataArray>
        <DataArray type="Float32" Name="slip" NumberOfComponents="3" format="ascii">
-0.001483 -0.001411 -0.000233
        </DataArray>
      </CellData>
    </Piece>
    <Piece NumberOfPoints="4" NumberOfPolys="1">
      <Points>
        <DataArray type="Float32" Name="Fault Patch" NumberOfComponents="3" format="ascii">
23071.790000 9132.905000 11973.900000
13868.676183 32377.317147 11973.900000
-9202.475641 23242.801945 8927.166415
0.638176 -1.610202 8927.166415
        </DataArray>
      </Points>
      <Polys>
        <DataArray type="Int32" Name="connectivity" format="ascii" RangeMin="0" RangeMax="-1">
0 1 2 3
        </DataArray>
        <DataArray type="Int32" Name="offsets" format="ascii" RangeMin="4" RangeMax="4">
          4
        </DataArray>
      </Polys>
      <CellData Scalar="geometry">
        <DataArray type="Float32" Name="strike" NumberOfComponents="1" format="ascii">
111.600000
        </DataArray>
        <DataArray type="Float32" Name="dip" NumberOfComponents="1" format="ascii">
-7.000000
        </DataArray>
        <DataArray type="Float32" Name="strike slip" NumberOfComponents="1" format="ascii">
-0.001717
        </DataArray>
        <DataArray type="Float32" Name="dip slip" NumberOfComponents="1" format="ascii">
-0.011503
        </DataArray>
        <DataArray type="Float32" Name="slip" NumberOfComponents="3" format="ascii">
-0.009983 -0.005799 -0.001402
        </DataArray>
      </CellData>
    </Piece>
    <Piece NumberOfPoints="4" NumberOfPolys="1">
      <Points>
        <DataArray type="Float32" Name="Fault Patch" NumberOfComponents="3" format="ascii">
13870.300000 32377.960000 11973.900000
4667.186183 55622.372147 11973.900000
-18403.965641 46487.856945 8927.166415
-9200.851824 23243.444798 8927.166415
        </DataArray>
      </Points>
      <Polys>
        <DataArray type="Int32" Name="connectivity" format="ascii" RangeMin="0" RangeMax="-1">
0 1 2 3
        </DataArray>
        <DataArray type="Int32" Name="offsets" format="ascii" RangeMin="4" RangeMax="4">
          4
        </DataArray>
      </Polys>
      <CellData Scalar="geometry">
        <DataArray type="Float32" Name="strike" NumberOfComponents="1" format="ascii">
111.600000
        </DataArray>
        <DataArray type="Float32" Name="dip" NumberOfComponents="1" format="ascii">
-7.000000
        </DataArray>
        <DataArray type="Float32" Name="strike slip" NumberOfComponents="1" format="ascii">
0.003563
        </DataArray>
        <DataArray type="Float32" Name="dip slip" NumberOfComponents="1" format="ascii">
-0.014571
        </DataArray>
        <DataArray type="Float32" Name="slip" NumberOfComponents="3" format="ascii">
-0.014758 -0.002011 -0.001776
        </DataArray>
      </CellData>
    </Piece>
    <Piece NumberOfPoints="4" NumberOfPolys="1">
      <Points>
        <DataArray type="Float32" Name="Fault Patch" NumberOfComponents="3" format="ascii">
4668.808000 55623.010000 11973.900000
-4534.305817 78867.422147 11973.900000
-27605.457641 69732.906945 8927.166415
-18402.343824 46488.494798 8927.166415
        </DataArray>
      </Points>
      <Polys>
        <DataArray type="Int32" Name="connectivity" format="ascii" RangeMin="0" RangeMax="-1">
0 1 2 3
        </DataArray>
        <DataArray type="Int32" Name="offsets" format="ascii" RangeMin="4" RangeMax="4">
          4
        </DataArray>
      </Polys>
      <CellData Scalar="geometry">
        <DataArray type="Float32" Name="strike" NumberOfComponents="1" format="ascii">
111.600000
        </DataArray>
        <DataArray type="Float32" Name="dip" NumberOfComponents="1" format="ascii">
-7.000000
        </DataArray>
        <DataArray type="Float32" Name="strike slip" NumberOfComponents="1" format="ascii">
0.000116
        </DataArray>
        <DataArray type="Float32" Name="dip slip" NumberOfComponents="1" format="ascii">
-0.000383
        </DataArray>
        <DataArray type="Float32" Name="slip" NumberOfComponents="3" format="ascii">
-0.000396 -0.000032 -0.000047
        </DataArray>
      </CellData>
    </Piece>
    <Piece NumberOfPoints="4" NumberOfPolys="1">
      <Points>
        <DataArray type="Float32" Name="Fault Patch" NumberOfComponents="3" format="ascii">
-4532.684000 78868.070000 11973.900000
-13735.797817 102112.482147 11973.900000
-36806.949641 92977.966945 8927.166415
-27603.835824 69733.554798 8927.166415
        </DataArray>
      </Points>
      <Polys>
        <DataArray type="Int32" Name="connectivity" format="ascii" RangeMin="0" RangeMax="-1">
0 1 2 3
        </DataArray>
        <DataArray type="Int32" Name="offsets" format="ascii" RangeMin="4" RangeMax="4">
          4
        </DataArray>
      </Polys>
      <CellData Scalar="geometry">
        <DataArray type="Float32" Name="strike" NumberOfComponents="1" format="ascii">
111.600000
        </DataArray>
        <DataArray type="Float32" Name="dip" NumberOfComponents="1" format="ascii">
-7.000000
        </DataArray>
        <DataArray type="Float32" Name="strike slip" NumberOfComponents="1" format="ascii">
0.000830
        </DataArray>
        <DataArray type="Float32" Name="dip slip" NumberOfComponents="1" format="ascii">
-0.003800
        </DataArray>
        <DataArray type="Float32" Name="slip" NumberOfComponents="3" format="ascii">
-0.003813 -0.000617 -0.000463
        </DataArray>
      </CellData>
    </Piece>
    <Piece NumberOfPoints="4" NumberOfPolys="1">
      <Points>
        <DataArray type="Float32" Name="Fault Patch" NumberOfComponents="3" format="ascii">
-13734.170000 102113.100000 11973.900000
-22937.283817 125357.512147 11973.900000
-46008.435641 116222.996945 8927.166415
-36805.321824 92978.584798 8927.166415
        </DataArray>
      </Points>
      <Polys>
        <DataArray type="Int32" Name="connectivity" format="ascii" RangeMin="0" RangeMax="-1">
0 1 2 3
        </DataArray>
        <DataArray type="Int32" Name="offsets" format="ascii" RangeMin="4" RangeMax="4">
          4
        </DataArray>
      </Polys>
      <CellData Scalar="geometry">
        <DataArray type="Float32" Name="strike" NumberOfComponents="1" format="ascii">
111.600000
        </DataArray>
        <DataArray type="Float32" Name="dip" NumberOfComponents="1" format="ascii">
-7.000000
        </DataArray>
        <DataArray type="Float32" Name="strike slip" NumberOfComponents="1" format="ascii">
-0.000116
        </DataArray>
        <DataArray type="Float32" Name="dip slip" NumberOfComponents="1" format="ascii">
-0.006849
        </DataArray>
        <DataArray type="Float32" Name="slip" NumberOfComponents="3" format="ascii">
-0.006278 -0.002610 -0.000835
        </DataArray>
      </CellData>
    </Piece>
    <Piece NumberOfPoints="4" NumberOfPolys="1">
      <Points>
        <DataArray type="Float32" Name="Fault Patch" NumberOfComponents="3" format="ascii">
-22935.660000 125358.200000 11973.900000
-32138.773817 148602.612147 11973.900000
-55209.925641 139468.096945 8927.166415
-46006.811824 116223.684798 8927.166415
        </DataArray>
      </Points>
      <Polys>
        <DataArray type="Int32" Name="connectivity" format="ascii" RangeMin="0" RangeMax="-1">
0 1 2 3
        </DataArray>
        <DataArray type="Int32" Name="offsets" format="ascii" RangeMin="4" RangeMax="4">
          4
        </DataArray>
      </Polys>
      <CellData Scalar="geometry">
        <DataArray type="Float32" Name="strike" NumberOfComponents="1" format="ascii">
111.600000
        </DataArray>
        <DataArray type="Float32" Name="dip" NumberOfComponents="1" format="ascii">
-7.000000
        </DataArray>
        <DataArray type="Float32" Name="strike slip" NumberOfComponents="1" format="ascii">
-0.000364
        </DataArray>
        <DataArray type="Float32" Name="dip slip" NumberOfComponents="1" format="ascii">
-0.013735
        </DataArray>
        <DataArray type="Float32" Name="slip" NumberOfComponents="3" format="ascii">
-0.012541 -0.005357 -0.001674
        </DataArray>
      </CellData>
    </Piece>
    <Piece NumberOfPoints="4" NumberOfPolys="1">
      <Points>
        <DataArray type="Float32" Name="Fault Patch" NumberOfComponents="3" format="ascii">
-32137.160000 148603.200000 11973.900000
-41340.273817 171847.612147 11973.900000
-64411.425641 162713.096945 8927.166415
-55208.311824 139468.684798 8927.166415
        </DataArray>
      </Points>
      <Polys>
        <DataArray type="Int32" Name="connectivity" format="ascii" RangeMin="0" RangeMax="-1">
0 1 2 3
        </DataArray>
        <DataArray type="Int32" Name="offsets" format="ascii" RangeMin="4" RangeMax="4">
          4
        </DataArray>
      </Polys>
      <CellData Scalar="geometry">
        <DataArray type="Float32" Name="strike" NumberOfComponents="1" format="ascii">
111.600000
        </DataArray>
        <DataArray type="Float32" Name="dip" NumberOfComponents="1" format="ascii">
-7.000000
        </DataArray>
        <DataArray type="Float32" Name="strike slip" NumberOfComponents="1" format="ascii">
0.001038
        </DataArray>
        <DataArray type="Float32" Name="dip slip" NumberOfComponents="1" format="ascii">
-0.008588
        </DataArray>
        <DataArray type="Float32" Name="slip" NumberOfComponents="3" format="ascii">
-0.008307 -0.002173 -0.001047
        </DataArray>
      </CellData>
    </Piece>
    <Piece NumberOfPoints="4" NumberOfPolys="1">
      <Points>
        <DataArray type="Float32" Name="Fault Patch" NumberOfComponents="3" format="ascii">
-41338.650000 171848.300000 11973.900000
-50541.763817 195092.712147 11973.900000
-73612.915641 185958.196945 8927.166415
-64409.801824 162713.784798 8927.166415
        </DataArray>
      </Points>
      <Polys>
        <DataArray type="Int32" Name="connectivity" format="ascii" RangeMin="0" RangeMax="-1">
0 1 2 3
        </DataArray>
        <DataArray type="Int32" Name="offsets" format="ascii" RangeMin="4" RangeMax="4">
          4
        </DataArray>
      </Polys>
      <CellData Scalar="geometry">
        <DataArray type="Float32" Name="strike" NumberOfComponents="1" format="ascii">
111.600000
        </DataArray>
        <DataArray type="Float32" Name="dip" NumberOfComponents="1" format="ascii">
-7.000000
        </DataArray>
        <DataArray type="Float32" Name="strike slip" NumberOfComponents="1" format="ascii">
0.003883
        </DataArray>
        <DataArray type="Float32" Name="dip slip" NumberOfComponents="1" format="ascii">
-0.009117
        </DataArray>
        <DataArray type="Float32" Name="slip" NumberOfComponents="3" format="ascii">
-0.009844 0.000279 -0.001111
        </DataArray>
      </CellData>
    </Piece>
    <Piece NumberOfPoints="4" NumberOfPolys="1">
      <Points>
        <DataArray type="Float32" Name="Fault Patch" NumberOfComponents="3" format="ascii">
-50540.140000 195093.300000 11973.900000
-59743.253817 218337.712147 11973.900000
-82814.405641 209203.196945 8927.166415
-73611.291824 185958.784798 8927.166415
        </DataArray>
      </Points>
      <Polys>
        <DataArray type="Int32" Name="connectivity" format="ascii" RangeMin="0" RangeMax="-1">
0 1 2 3
        </DataArray>
        <DataArray type="Int32" Name="offsets" format="ascii" RangeMin="4" RangeMax="4">
          4
        </DataArray>
      </Polys>
      <CellData Scalar="geometry">
        <DataArray type="Float32" Name="strike" NumberOfComponents="1" format="ascii">
111.600000
        </DataArray>
        <DataArray type="Float32" Name="dip" NumberOfComponents="1" format="ascii">
-7.000000
        </DataArray>
        <DataArray type="Float32" Name="strike slip" NumberOfComponents="1" format="ascii">
-0.003091
        </DataArray>
        <DataArray type="Float32" Name="dip slip" NumberOfComponents="1" format="ascii">
-0.006943
        </DataArray>
        <DataArray type="Float32" Name="slip" NumberOfComponents="3" format="ascii">
-0.005269 -0.005411 -0.000846
        </DataArray>
      </CellData>
    </Piece>
    <Piece NumberOfPoints="4" NumberOfPolys="1">
      <Points>
        <DataArray type="Float32" Name="Fault Patch" NumberOfComponents="3" format="ascii">
128957.000000 -190939.700000 15020.600000
119753.886183 -167695.287853 15020.600000
96682.734359 -176829.803055 11973.866415
105885.848176 -200074.215202 11973.866415
        </DataArray>
      </Points>
      <Polys>
        <DataArray type="Int32" Name="connectivity" format="ascii" RangeMin="0" RangeMax="-1">
0 1 2 3
        </DataArray>
        <DataArray type="Int32" Name="offsets" format="ascii" RangeMin="4" RangeMax="4">
          4
        </DataArray>
      </Polys>
      <CellData Scalar="geometry">
        <DataArray type="Float32" Name="strike" NumberOfComponents="1" format="ascii">
111.600000
        </DataArray>
        <DataArray type="Float32" Name="dip" NumberOfComponents="1" format="ascii">
-7.000000
        </DataArray>
        <DataArray type="Float32" Name="strike slip" NumberOfComponents="1" format="ascii">
0.000361
        </DataArray>
        <DataArray type="Float32" Name="dip slip" NumberOfComponents="1" format="ascii">
-0.004435
        </DataArray>
        <DataArray type="Float32" Name="slip" NumberOfComponents="3" format="ascii">
-0.004226 -0.001285 -0.000541
        </DataArray>
      </CellData>
    </Piece>
    <Piece NumberOfPoints="4" NumberOfPolys="1">
      <Points>
        <DataArray type="Float32" Name="Fault Patch" NumberOfComponents="3" format="ascii">
119755.500000 -167694.600000 15020.600000
110552.386183 -144450.187853 15020.600000
87481.234359 -153584.703055 11973.866415
96684.348176 -176829.115202 11973.866415
        </DataArray>
      </Points>
      <Polys>
        <DataArray type="Int32" Name="connectivity" format="ascii" RangeMin="0" RangeMax="-1">
0 1 2 3
        </DataArray>
        <DataArray type="Int32" Name="offsets" format="ascii" RangeMin="4" RangeMax="4">
          4
        </DataArray>
      </Polys>
      <CellData Scalar="geometry">
        <DataArray type="Float32" Name="strike" NumberOfComponents="1" format="ascii">
111.600000
        </DataArray>
        <DataArray type="Float32" Name="dip" NumberOfComponents="1" format="ascii">
-7.000000
        </DataArray>
        <DataArray type="Float32" Name="strike slip" NumberOfComponents="1" format="ascii">
-0.000001
        </DataArray>
        <DataArray type="Float32" Name="dip slip" NumberOfComponents="1" format="ascii">
-0.000220
        </DataArray>
        <DataArray type="Float32" Name="slip" NumberOfComponents="3" format="ascii">
-0.000203 -0.000082 -0.000027
        </DataArray>
      </CellData>
    </Piece>
    <Piece NumberOfPoints="4" NumberOfPolys="1">
      <Points>
        <DataArray type="Float32" Name="Fault Patch" NumberOfComponents="3" format="ascii">
110554.000000 -144449.600000 15020.600000
101350.886183 -121205.187853 15020.600000
78279.734359 -130339.703055 11973.866415
87482.848176 -153584.115202 11973.866415
        </DataArray>
      </Points>
      <Polys>
        <DataArray type="Int32" Name="connectivity" format="ascii" RangeMin="0" RangeMax="-1">
0 1 2 3
        </DataArray>
        <DataArray type="Int32" Name="offsets" format="ascii" RangeMin="4" RangeMax="4">
          4
        </DataArray>
      </Polys>
      <CellData Scalar="geometry">
        <DataArray type="Float32" Name="strike" NumberOfComponents="1" format="ascii">
111.600000
        </DataArray>
        <DataArray type="Float32" Name="dip" NumberOfComponents="1" format="ascii">
-7.000000
        </DataArray>
        <DataArray type="Float32" Name="strike slip" NumberOfComponents="1" format="ascii">
0.001253
        </DataArray>
        <DataArray type="Float32" Name="dip slip" NumberOfComponents="1" format="ascii">
-0.010415
        </DataArray>
        <DataArray type="Float32" Name="slip" NumberOfComponents="3" format="ascii">
-0.010073 -0.002640 -0.001269
        </DataArray>
      </CellData>
    </Piece>
    <Piece NumberOfPoints="4" NumberOfPolys="1">
      <Points>
        <DataArray type="Float32" Name="Fault Patch" NumberOfComponents="3" format="ascii">
101352.500000 -121204.500000 15020.600000
92149.386183 -97960.087853 15020.600000
69078.234359 -107094.603055 11973.866415
78281.348176 -130339.015202 11973.866415
        </DataArray>
      </Points>
      <Polys>
        <DataArray type="Int32" Name="connectivity" format="ascii" RangeMin="0" RangeMax="-1">
0 1 2 3
        </DataArray>
        <DataArray type="Int32" Name="offsets" format="ascii" RangeMin="4" RangeMax="4">
          4
        </DataArray>
      </Polys>
      <CellData Scalar="geometry">
        <DataArray type="Float32" Name="strike" NumberOfComponents="1" format="ascii">
111.600000
        </DataArray>
        <DataArray type="Float32" Name="dip" NumberOfComponents="1" format="ascii">
-7.000000
        </DataArray>
        <DataArray type="Float32" Name="strike slip" NumberOfComponents="1" format="ascii">
0.003918
        </DataArray>
        <DataArray type="Float32" Name="dip slip" NumberOfComponents="1" format="ascii">
-0.012196
        </DataArray>
        <DataArray type="Float32" Name="slip" NumberOfComponents="3" format="ascii">
-0.012697 -0.000813 -0.001486
        </DataArray>
      </CellData>
    </Piece>
    <Piece NumberOfPoints="4" NumberOfPolys="1">
      <Points>
        <DataArray type="Float32" Name="Fault Patch" NumberOfComponents="3" format="ascii">
92151.040000 -97959.460000 15020.600000
82947.926183 -74715.047853 15020.600000
59876.774359 -83849.563055 11973.866415
69079.888176 -107093.975202 11973.866415
        </DataArray>
      </Points>
      <Polys>
        <DataArray type="Int32" Name="connectivity" format="ascii" RangeMin="0" RangeMax="-1">
0 1 2 3
        </DataArray>
        <DataArray type="Int32" Name="offsets" format="ascii" RangeMin="4" RangeMax="4">
          4
        </DataArray>
      </Polys>
      <CellData Scalar="geometry">
        <DataArray type="Float32" Name="strike" NumberOfComponents="1" format="ascii">
111.600000
        </DataArray>
        <DataArray type="Float32" Name="dip" NumberOfComponents="1" format="ascii">
-7.000000
        </DataArray>
        <DataArray type="Float32" Name="strike slip" NumberOfComponents="1" format="ascii">
-0.002258
        </DataArray>
        <DataArray type="Float32" Name="dip slip" NumberOfComponents="1" format="ascii">
-0.024205
        </DataArray>